64
energy=-6845.6680891662 Lattice="10.9375 0.0 0.0 0.0 10.9375 0.0 0.0 0.0 10.9375" Virial="5.8817674015 -0.6897618800 0.6866590535 -0.6897618800 7.8473937720 -1.5134784713 0.6866590535 -1.5134784713 6.7939806260" config_type=/share/home/hechao/Work/DataOfDFT/cry_Si/test/raw/001/OUT.Si Properties=species:S:1:pos:R:3:forces:R:3 
Si                          5.0052734353        4.4087531261        8.3359281239       -1.7184180507        1.0472038232        0.1543798479 
Si                          4.9733796875        4.3553234408        2.8082031272       -0.5801360140        0.5273484359       -0.8081344248 
Si                          4.9131796853       10.0436328136        8.3095468783       -0.0396151224       -0.9131749132       -0.0500315933 
Si                          4.7952296908        9.7722187522        2.8299359342        0.6942258004        0.2793658022       -0.3311487571 
Si                         10.5439468772        4.3914171864        8.4359296864       -0.2096867308        0.4050319962       -0.4706759173 
Si                         10.3687609419        4.3183656217        2.8372421842       -0.2225864821        0.3097324644       -0.0773874846 
Si                         10.3993312445        9.9122406250        8.3738046864       -0.8735321297        0.1183954803       -0.4405607980 
Si                         10.3064609419        9.9303640581        2.7716828103       -0.3943536782        0.1823722115        0.6690886422 
Si                          6.4418593750        5.8309234375        9.5098828169       -1.0883346439        1.2020678257        0.2495877786 
Si                          6.3541625022        5.7478093728        4.1160218783       -0.2627010879        0.3196158204        0.3707097175 
Si                          6.2037609364        0.4569249978        9.7578031239       -0.0671542052        0.1969277183       -1.0425270587 
Si                          6.2089124978        0.1808624978        4.3132140614       -0.1703822397       -0.2111998417        0.1109879096 
Si                          0.8656265625        5.8285828070        9.9433468706       -0.5451537587        0.0759211025       -2.1637774581 
Si                          0.7031937489        5.6586359342        4.4024750000       -0.4723959058        0.7307630601       -1.1070189889 
Si                          0.7078421875        0.3656625011        9.6972312511       -0.7686528923        1.1180588796       -0.3661570770 
Si                          0.6330187467        0.3411406228        4.3271374978        0.1478473697       -0.9615929160       -0.6538702390 
Si                          4.7974281294        7.1101515636       10.9215531261        0.3310521428        0.1006094932       -0.6607460483 
Si                          4.9724390636        6.9868093772        5.5830140592       -0.8162516004        0.7058412041       -0.3530842215 
Si                          4.8282937533        1.9112624989        0.0647828103       -0.5240273960       -1.2587809173        0.3556799863 
Si                          4.8310718750        1.6819468761        5.6764749956       -0.1158777433        0.1602282203       -2.1196566250 
Si                         10.4039031239        7.1467046897        0.2226765658       -1.2815656046        0.9511993411        0.4540681109 
Si                         10.4550796897        7.1617546908        5.7939109386       -0.0951829153        0.1673294107       -0.3222514272 
Si                         10.4068343750        1.8506140647        0.1114421886        0.0234186029       -0.9293451478        0.4161195678 
Si                         10.2749718750        1.8535015669        5.4714296908       -0.5411610075       -0.3382729986        0.5083892023 
Si                          8.9340453103        5.7390812478        1.5064109397        0.4556029019        0.0720215644       -0.3774800552 
Si                          9.0933281206        5.6820093783        7.0677578125       -0.1358163807        0.8479633340        0.1731715819 
Si                          8.9122359331        0.4950968717        1.4056656250        0.5366958777       -0.9219998915        0.8142875675 
Si                          9.0261390614        0.3157000000        6.8243328136        0.7600266695        0.7811927764        1.4643311481 
Si                          3.4501906294        5.9419171831        1.4940406206        0.8134490794       -0.4058019782        1.4931851959 
Si                          3.4740999956        5.7363687467        6.9694296875        0.7565025060        0.1816645642        0.2256368561 
Si                          3.4993218772        0.2597218750        1.4250687533        0.1021079770        0.5582009666       -0.1964511891 
Si                          3.4842390669        0.5242234386        7.0768578092       -0.9038491387       -1.2375919063       -0.2787885162 
Si                          6.1405750022        8.3537453158        1.3838015669       -0.0222027633        1.3754266246        0.7295660046 
Si                          6.2854421853        8.4435749978        6.8700406272       -0.1428364673        0.5030518789        1.4176457135 
Si                          6.3841312522        3.0744656283        1.3889968772       -1.1999021181       -0.2474932587        0.7061984574 
Si                          6.0976562500        3.1022906195        6.9402375000        1.4714844580       -0.7722929271       -0.6070486604 
Si                          0.8567234364        8.5519656228        1.5483890592       -0.6989606548        0.1727233615       -0.1768684242 
Si                          1.0182156261        8.6345437456        7.1046937511       -1.8474836607        0.0690143816       -1.1796413521 
Si                          1.0238265592        3.1403312533        1.3145781283       -1.1912042173       -0.2065608610        1.1517458295 
Si                          0.7820093761        3.2986406305        6.6164984375       -0.1354324007       -0.3334431384        1.1321054371 
Si                          8.9305890669        8.7559500044        9.8732374989        0.9346166921       -0.7211428919       -0.1170964831 
Si                          9.0508468706        8.5420890636        4.3416406261        0.7513387447       -0.9646104979       -1.5660002428 
Si                          9.0743515647        2.9759187522        9.6294953081       -1.3260233805        0.8194337643       -1.0033030237 
Si                          8.7695671886        3.1008578147        4.2182109397        0.5406777673       -0.2483541012       -0.6422097486 
Si                          3.4627250000        8.6658359419        9.6410890647        0.4650090699       -0.4432003062       -0.1113632447 
Si                          3.5150937511        8.4788703092        4.2464406228        0.0315632808       -0.3584827820        0.8594083194 
Si                          3.4529796908        3.0011734331        9.4264734419       -0.3577322828        0.5459658851        0.5916623115 
Si                          3.4902546908        2.8650890658        3.9253593706        0.3517884434       -0.3352339610        0.6857227649 
Si                          7.5482203158        4.4188703169       10.8968781261        2.0868798012       -0.0681737860        0.5320891884 
Si                          7.5242015592        4.4435124956        5.6997609397        0.7722977819        0.4779425912       -0.4566522516 
Si                          7.3817734353       10.0162453136        0.2441796919        1.0552654395       -0.2735187798       -0.2165396206 
Si                          7.7570062456        9.7751609342        5.7005375022       -1.6437619648        0.7174728347       -1.1547351574 
Si                          2.4074203147        4.5482062467        0.0244124978        0.0696200551       -1.3533706534        0.1232835078 
Si                          2.3979046864        4.4289656272        5.3112171864       -0.1225640176       -0.4269391833        0.8526316045 
Si                          2.0116687522        9.9976843794        0.0294218783        1.6089389837       -1.1833993221        0.9445250995 
Si                          2.2273890603        9.9778437489        5.5861640625        0.2476330661        0.2902117177        0.3787674978 
Si                          7.9071453092        7.3689328147        8.3041656261       -1.3305136645       -1.1151767666       -0.1102986680 
Si                          7.6439234408        7.2765875022        2.7815375000        0.4281102981       -0.8959323589        0.9070243045 
Si                          7.5682468761        1.6875578092        8.1457249989        0.5627258339       -0.1676379301        1.1029722922 
Si                          7.4848265603        1.5773078158        2.9021125044        0.2508753429        0.8166815859       -0.1357853320 
Si                          2.1012578136        7.1737093783        8.3941265581        1.1903800950       -0.9533761446        0.5218639783 
Si                          1.9589281206        7.1731734364        3.0975656206        0.8258494123       -0.3617713532       -1.1899046278 
Si                          1.7337359342        1.7460406239        8.1052234364        1.8830754648        0.3236261050        0.5462955358 
Si                          1.8807468761        1.4095375000        2.7218406294        1.6963933622        1.4572652879       -0.1559362430 
64
energy=-6846.8614820795 Lattice="10.9375 0.0 0.0 0.0 10.9375 0.0 0.0 0.0 10.9375" Virial="9.0829866102 -0.8373378046 -4.1162323333 -0.8373378046 8.0285176685 -0.7516000919 -4.1162323333 -0.7516000919 9.4076075723" config_type=/share/home/hechao/Work/DataOfDFT/cry_Si/test/raw/002/OUT.Si Properties=species:S:1:pos:R:3:forces:R:3 
Si                          5.7918109397        6.0734406228        8.9311468783        0.6597234709        0.9410384785        0.3895785895 
Si                          5.9703437478        6.1202968706        3.4596843783       -0.1060188245        1.5761244584        0.1953077355 
Si                          6.0005640592        0.7089031217        8.9045687522       -0.3126461559        0.9277684091        0.1942365092 
Si                          5.9471781250        0.8621703081        3.5685453158        0.2879287616       -1.1380577320       -0.1108174885 
Si                          0.3061843717        6.0402781294        8.8737140581        0.6824078287        1.1147642392       -0.0150247783 
Si                          0.4282687533        6.1959078158        3.2777937456       -0.4371178735        0.6042764489        1.0189042319 
Si                          0.7288531217        0.7968734353        8.9180765658       -0.9887076191       -0.5018392849       -0.5339163389 
Si                          0.5681156250        0.8401750000        3.4526296897       -0.5728396963       -0.1552290020       -0.4319059482 
Si                          7.2848890658        7.5942453103       10.1662749978       -0.0681430293        0.5752775520        0.0097349949 
Si                          7.3447499967        7.6028749956        4.8728093728       -0.0826933229        0.3500784632       -0.5336785767 
Si                          7.4736484353        1.9135374978       10.1966484397       -0.5343661416        2.1839801488       -0.1067987144 
Si                          7.4061968739        2.2889343783        4.6625796864       -0.1136000195        0.2711460763        0.6398724329 
Si                          1.7455375022        7.4946484397       10.0500203103        0.9485641634        0.4510355076        0.8617765381 
Si                          1.7804609320        7.5699968728        4.6408906294       -0.3935235794        0.8078097276        0.4186021957 
Si                          1.9553953158        2.0727546886       10.3807046897       -0.3961824789        0.4385126027        0.3477258063 
Si                          1.8000609419        2.0126203169        5.0126015647        0.6932670372        1.2287159219       -0.4394396421 
Si                          5.9967359342        8.9718343728        0.8091781250       -0.4295437120       -0.6419013826       -1.1309264579 
Si                          5.9368421831        9.0998906272        6.1697671897        0.1102394866       -0.4312953468       -0.2121094662 
Si                          6.1054328114        3.4786062544        0.5720421908       -0.2225920632       -0.4596737386        0.5281037190 
Si                          5.9133374989        3.6075156228        5.9861484419        0.4619154128       -0.0316696690        0.6493979059 
Si                          0.5945734419        8.9282593772        0.6453453158        0.0515822119       -0.0718743968        0.2427652368 
Si                          0.3129984397        9.0398437456        5.9449906261        0.9522820807       -0.3871337363        0.7674133961 
Si                          0.4882609342        3.4678546908        0.7218312544        0.4175498859        0.4656682704       -0.4127564822 
Si                          0.4653359419        3.4619046864        6.3572140647       -0.0349647651       -0.6251512081       -0.3021001752 
Si                         10.0009437522        7.7023624956        2.0077312467       -0.0095604743       -0.0478877728        0.0903765334 
Si                         10.0857750033        7.5380703147        7.4767546875        0.3765235979        0.6027402957       -0.4054631440 
Si                         10.0726390603        2.0750296875        1.9963234408        0.8041448548        0.3639804381        0.5241252385 
Si                          9.9608359408        1.9223093728        7.6539968706        1.2480975223        1.1929107834       -0.7100485519 
Si                          4.5634093783        7.4496406294        2.0498296864        0.0586009818        0.9312008008       -0.2035478288 
Si                          4.7239828136        7.5637843783        7.4956109342       -1.2277394875        0.4344529094       -0.2363374487 
Si                          4.8013218750        2.1213500044        2.1056875011       -1.4911840188        0.9195072782       -0.9887862834 
Si                          4.7695374967        2.1434000022        7.4893874989       -0.8083162415        0.2400256564        0.2066453521 
Si                          7.2635062500       10.4436281228        2.0637859419        0.1788952245       -0.3085937153        0.8562606213 
Si                          7.3418296853       10.2888515603        7.7336984419        0.5290898530       -0.2856633331       -2.4494112680 
Si                          7.3103406283        5.0422421842        1.9535468794        0.2424610672       -1.7895062226        0.1227963784 
Si                          7.2259359386        4.9762343783        7.4897046897        0.2734137817       -1.0378232626       -0.6305825847 
Si                          1.8970328114       10.4325265581        2.0194781239       -1.4813830104       -1.8734579354        0.9954799358 
Si                          1.8769625011       10.2540265603        7.4692734375       -0.4713446488       -0.8670154841        0.5466480325 
Si                          1.8904812456        4.9375265625        2.0776328081       -0.2504838271       -1.5715305487       -0.7452835544 
Si                          1.8726421831        4.9124031217        7.6112640592        0.3110906950       -0.6345404045       -0.8437632903 
Si                         10.3254921875       10.3635875011       10.2195406217       -1.3748490352       -0.2793189091        0.4591195228 
Si                          9.9301234375       10.6094843706        4.6966937544        0.5995463084       -1.3681687801        0.3004734213 
Si                          9.9576749978        4.7532734419       10.2866531217       -0.4889421138       -0.4957550562       -0.1430763359 
Si                         10.1921093717        4.7704343706        4.8191937467       -0.6957857123        0.1668946587       -0.6575636421 
Si                          4.6991765636       10.4014750033       10.2924281250       -1.3085296700       -1.1616195802        0.9587627964 
Si                          4.3289531250       10.4843265669        4.7597484375        2.0938215742       -1.2667747784       -0.0736894611 
Si                          4.4549640614        4.6989796831       10.3212375011        0.9844060604       -0.4102989945       -0.6888856154 
Si                          4.4563203169        4.9424156228        4.7286640625       -0.4372884887       -1.6245808554       -0.4824039428 
Si                          8.6415109331        6.2963906294        0.6016718706        0.7542605661        0.5395960006       -0.1111647977 
Si                          8.7850656206        6.1733765647        6.1608312544       -0.8467120392        0.1595229482       -0.5542660936 
Si                          8.7578312511        0.7155203081        0.7223671864        0.5286016356       -1.0475195826       -0.7253647320 
Si                          8.5689078114        0.8250703092        6.1375890603       -0.4236647936       -0.0364216848        0.7580766122 
Si                          3.1555562544        6.1507140636        0.5467656294       -0.1927474500        1.1271228583        0.7244189866 
Si                          3.1889593783        6.3159359386        6.0745453169       -0.2226153780        0.2771176364        1.1129707147 
Si                          3.2581062467        0.7205187489        0.8491984364        2.2912474829        1.3685571008       -1.6034047834 
Si                          3.2578984364        0.7167562533        6.3509796886       -0.1457536031        1.1222685046       -0.4160284051 
Si                          8.8981265658        8.9826406261        8.8571546908       -0.7538230418       -0.3732139685        0.8512670169 
Si                          8.6485328114        9.1192718750        3.4672749978       -0.2711435675       -1.0102568519       -0.5205381989 
Si                          8.5939875022        3.4715406250        8.6988453147        0.0946173707       -0.1937939622        1.5335333036 
Si                          8.7947234397        3.5711046864        3.1943296908       -0.4972955644        0.5098974657        1.1390232878 
Si                          3.3466781228        8.9609078081        8.9069093717       -0.6328925450       -0.4513093614       -0.3588176821 
Si                          3.1679156239        8.9908437489        3.3521468750        0.3557553448       -0.6275014628       -0.0494490345 
Si                          3.1541562489        3.3605359386        8.9029062456        1.0310744205        0.4914471633       -0.6109361793 
Si                          3.1054406228        3.3201874967        3.3437687511        0.7038853108        0.8229392012        0.9948898807 
64
energy=-6846.371999223 Lattice="10.9375 0.0 0.0 0.0 10.9375 0.0 0.0 0.0 10.9375" Virial="12.1278920011 0.5307846072 -5.3132372296 0.5307846072 12.8179460181 0.9305855296 -5.3132372296 0.9305855296 9.6481803032" config_type=/share/home/hechao/Work/DataOfDFT/cry_Si/test/raw/003/OUT.Si Properties=species:S:1:pos:R:3:forces:R:3 
Si                          1.5305718772        9.6812953169        6.5203140603        0.1606738387        1.8799225573       -0.6936201069 
Si                          1.5987671919        9.7554515647        1.1529765581       -0.6358279536        0.7001796222       -1.5371695226 
Si                          1.5798234353        4.3073296875        6.4127984375       -1.0827047557        0.7063287168        0.7053976612 
Si                          1.6346421864        4.3024624978        1.2062968728        0.6367021236       -0.3580661972       -0.8582828597 
Si                          7.1545468717        9.8095484419        6.4393000044       -0.2806182626        0.5087588165        0.2606476207 
Si                          7.1246218717        9.7860109375        1.0753968761       -0.3007765080        0.4054227687       -0.9538200156 
Si                          7.0795265603        4.5619656217        6.5313937544        0.4410537786       -0.1728990554        0.4439868143 
Si                          7.0188999956        4.5149562533        1.2266296842       -0.5568451576       -0.0534080453       -1.5659893529 
Si                          2.7407734353        0.3232031206        7.9039953169        0.8406712031       -0.7798584634       -0.5037920317 
Si                          2.9522062467        0.1267546897        2.5198578169        0.3572977699        0.1752000199       -1.6347532198 
Si                          2.7501031228        5.8414781294        7.8234843728        1.7248859189       -1.5115476454       -0.2700645432 
Si                          3.0084031228        5.8423859331        2.4024875044        0.4342148035       -1.6021708363       -0.5450563870 
Si                          8.3029078114        0.3721484375        8.0135890570       -1.1836634430       -0.6385954594        0.2669866473 
Si                          8.3264890658        0.2858078092        2.5083843706       -0.2625198134        0.0215781254       -0.4369248703 
Si                          8.4817687511        5.9078249967        8.0601500044       -0.8798938957        0.2612553975       -1.6886765196 
Si                          8.2423249978        5.8111593772        2.6404218717        1.0832747235       -0.1606456793       -0.7170499528 
Si                          1.4076125022        1.6880937511        9.2616781283        0.1837774592        0.1906146123        0.5868393242 
Si                          1.8554921842        1.6064562522        3.7454046875       -1.9582866629        1.2907984739        1.1327110431 
Si                          1.5916140625        7.1682187467        9.2247968695       -1.8008430382       -0.0948235915        1.0184613532 
Si                          1.6464546831        7.0777875033        3.6292921897       -0.6221734120        0.0958166126        2.5865385021 
Si                          6.9996937489        1.8071921897        9.5374343783        0.0297116655       -0.0523256323       -1.3053013919 
Si                          7.1997734331        1.7850984408        3.8953468706       -1.4651362255       -0.4697665851       -0.5386284287 
Si                          6.9646062478        7.1206406250        9.3459624978       -0.1863946115        0.3694948204       -0.1886301191 
Si                          6.9489109342        7.2867703136        3.7723437456        0.5749217697        0.1333636295        1.0942060083 
Si                          5.6312484342        0.1690937500       10.5948171919        0.2668721762        0.3859791049        0.8452452996 
Si                          5.7717296886        0.3817296853        5.1436546919       -0.5032217710       -0.5687398349        0.7804901647 
Si                          5.5364093717        5.7791015581       10.6676390647        0.5353482224       -0.4646191853        0.3881037105 
Si                          5.7000234408        5.8824937544        5.1442562544       -0.5623912697        0.1253142000        0.8912907550 
Si                          0.0898296919        0.3026187478       10.7236390592        0.4455313897        0.3207951440        0.8817060896 
Si                          0.3443999956        0.3943406261        5.0766625022       -0.8325171422       -1.0140260063        1.0682071209 
Si                          0.3394453158        5.6847656294       10.7648296853       -0.7837611500        0.6378333208       -0.3772268632 
Si                          0.2183015581        5.8178750044        5.1593499956        0.2698840145        0.5055063818        0.5452966040 
Si                          3.0862234353        2.8562515603       10.5747906206       -2.0400156636       -0.2786641532        1.4778390290 
Si                          3.0186843739        3.0268874967        5.1525249978        0.9087375449       -0.6488548623        0.6929963838 
Si                          2.8882328092        8.4687203081       10.5836828169        1.1926958822        0.8111684970        0.1974030700 
Si                          2.9456984397        8.4203875044        5.1152281283       -0.7704395399        0.0395348064        0.1345782786 
Si                          8.4574437533        3.2517734419       10.7597437544       -0.2648940092       -1.0407730746        0.6642432498 
Si                          8.4551359342        3.0378359408        5.3047421897        0.4685877089        0.8572853381        0.3146806514 
Si                          8.5340500011        8.4612171886       10.4861093739       -1.0165878547       -0.9553837899        2.3762591123 
Si                          8.6302781283        8.5643578136        4.9268187500       -0.8872733368       -0.2987752291        1.8980402306 
Si                          5.7160578147        3.1570218706        7.8864843761        0.3234230856       -1.0335369653        0.2110347697 
Si                          5.7411374956        3.0949953103        2.5187640625       -0.8686327736       -0.8205228996        0.0563116037 
Si                          5.6621140581        8.5399562445        7.9142874978        1.3855143689       -0.7695199999       -1.2335812859 
Si                          5.6297937478        8.6217140636        2.4644046842       -0.1805769848        0.0760867553       -0.4778021861 
Si                          0.0496125000        3.0961437456        7.8707015625        0.7112198330       -0.3564773709       -0.1198647444 
Si                          0.2642062533        3.0751984408        2.7276703125        0.1415670236       -0.8732987172       -1.5857397902 
Si                          0.1289093783        8.6727921897        8.0314828092        1.6882288679       -0.6064089401        0.2348423594 
Si                          0.2783156294        8.3960296864        2.4477468772       -1.3083375538        0.5603888583       -0.7520872145 
Si                          4.2932750011        9.8293343717        9.0886687522       -1.4065816713        1.2241599655        1.6755244221 
Si                          4.2538343728        9.8819109331        3.9195187478        1.5258124896        0.2373323895        0.2933492376 
Si                          4.2534187511        4.2589312533        9.2710187456       -0.0067272989        2.4188418110       -0.6465551441 
Si                          4.2910328125        4.4853156239        3.8711093728        0.7232385304       -0.0101301246       -0.5642612126 
Si                          9.7067578092        9.9454796897        9.2642593783        0.1153856476        1.2184079349        0.5356607043 
Si                          9.9007890592        9.9695093761        3.6075703125        0.8875084918        0.1013192701        0.9246816142 
Si                          9.7704140647        4.5154375055        9.2960437467        0.9766121707       -0.4052700800        0.7969185490 
Si                          9.7533406261        4.4646765603        3.8610359419       -0.4097378980        0.0390041750        1.0460011536 
Si                          4.3383265625        1.5958359397        6.6536421864        0.0453484912        0.7192000667       -0.6062724942 
Si                          4.2958015614        1.5184203081        1.1657625000        0.9891665869        0.2185123754       -0.3243617694 
Si                          4.2539000033        7.2453499967        6.5672031294        0.5899274314       -1.4335347945        0.0588531593 
Si                          4.3018062456        7.2446281239        1.1049499945        0.0221952644       -0.1572127687       -0.7342057145 
Si                          9.6643749989        1.5372765647        6.6632890658        1.6485487069        0.9882878279       -1.3417774150 
Si                          9.6623625000        1.7116968761        1.3213593761        1.2948192066        0.8508768791       -1.3542924584 
Si                          9.8776015658        7.3631906206        6.7092265603       -1.1733042549       -1.8764884095       -2.1435746978 
Si                          9.7176515625        7.0054140614        1.2291234342        0.6073257229        0.4317751218       -1.3859699848 
64
energy=-6846.822681489901 Lattice="10.9375 0.0 0.0 0.0 10.9375 0.0 0.0 0.0 10.9375" Virial="9.6807060855 -3.7993608449 1.0088172411 -3.7993608449 10.6109573918 5.4606556383 1.0088172411 5.4606556383 11.0620546909" config_type=/share/home/hechao/Work/DataOfDFT/cry_Si/test/raw/004/OUT.Si Properties=species:S:1:pos:R:3:forces:R:3 
Si                          4.0222437511        3.0722781294        7.6670781239       -0.1757255745       -0.1980493914        0.3016763855 
Si                          4.1131890669        3.0049249989        2.2991718794        0.3893433640       -0.8268337839        0.4002681674 
Si                          4.1960078103        8.4043859397        7.8729000011       -1.3576587634        0.5136817022        0.2125400717 
Si                          4.1427203158        8.4112328169        2.5066234342       -1.1938484403        0.1362391891       -0.7830508953 
Si                          9.5782312522        3.1538718772        7.7942046853       -0.7131535768       -0.3379228158        0.3610327101 
Si                          9.4613421919        3.1195718794        2.4035484386        0.1355426629       -0.0529600661       -0.4796467609 
Si                          9.5375765581        8.5987453114        7.8832250033        0.3174709585        0.0794506347        0.1166889139 
Si                          9.6900562522        8.4699562533        2.6176171908       -2.0782102402        0.4199691486       -0.5469065593 
Si                          5.2081859419        4.3226203092        9.2676828125       -0.5801470360       -0.1948317853       -0.3262355081 